# vtk DataFile Version 2.0
Electric current density generated by TTH
ASCII
DATASET UNSTRUCTURED_GRID
POINTS 5 double
0 0 0
1 0 0
0 1 0
1 1 0
2 0 0
CELLS 3 12
3 0 1 2
3 2 1 3
3 4 3 1
CELL_TYPES 3
5
5
5
POINT_DATA 5
VECTORS 10.000GHz_fone_imag double
0 0 1
0 0 1
0 0 1
0 0 1
0 0 1
